,pretty_formula,band_gap,comp,eneg_diff,atom_frac,molec_weight,group_num
686,PbS,1.9001000000000001,Pb1 S1,0.25,0.5,239.265,14
687,SnSe,0.6097999999999999,Sn1 Se1,0.5899999999999999,0.5,197.67,14
688,PbSe2,0.0,Pb1 Se2,2.7699999999999996,0.3333333333333333,365.12,14
689,SnSe,1.3338,Sn1 Se1,0.5899999999999999,0.5,197.67,14
690,SnSe,1.6171,Sn1 Se1,0.5899999999999999,0.5,197.67,14
691,SnSe2,0.8000000000000003,Sn1 Se2,3.1399999999999997,0.3333333333333333,276.63,14
692,SnSe,0.0,Sn1 Se1,0.5899999999999999,0.5,197.67,14
693,PbSe,0.9241000000000001,Pb1 Se1,0.21999999999999975,0.5,286.15999999999997,14
694,GeSe2,1.4382000000000001,Ge1 Se2,3.09,0.3333333333333333,230.56,14
695,GeSe,0.4400999999999997,Ge1 Se1,0.54,0.5,151.6,14
696,PbSe,1.3139,Pb1 Se1,0.21999999999999975,0.5,286.15999999999997,14
697,PbSe,1.6543,Pb1 Se1,0.21999999999999975,0.5,286.15999999999997,14
698,SnSe,0.5120999999999998,Sn1 Se1,0.5899999999999999,0.5,197.67,14
699,Sn3Se,0.0,Sn3 Se1,3.33,0.75,435.09,14
700,GeSe,0.8969,Ge1 Se1,0.54,0.5,151.6,14
701,PbSe,0.0,Pb1 Se1,0.21999999999999975,0.5,286.15999999999997,14
702,GeSe2,1.6631,Ge1 Se2,3.09,0.3333333333333333,230.56,14
703,Ge4Se9,1.2215,Ge4 Se9,14.91,0.3076923076923077,1001.2,14
704,SnSe,0.0,Sn1 Se1,0.5899999999999999,0.5,197.67,14
705,PbSe,0.9081000000000001,Pb1 Se1,0.21999999999999975,0.5,286.15999999999997,14
706,Sn3Se,0.0,Sn3 Se1,3.33,0.75,435.09,14
707,SnSe,0.8203000000000005,Sn1 Se1,0.5899999999999999,0.5,197.67,14
708,SnSe,0.30630000000000024,Sn1 Se1,0.5899999999999999,0.5,197.67,14
709,TePb,0.0,Te1 Pb1,0.22999999999999998,0.5,334.79999999999995,16
710,GeTe,2.2036000000000002,Ge1 Te1,0.0900000000000003,0.5,200.24,14
711,TePb,1.0581999999999994,Te1 Pb1,0.22999999999999998,0.5,334.79999999999995,16
712,GeTe,0.0,Ge1 Te1,0.0900000000000003,0.5,200.24,14
713,Sn3Te,0.0,Sn3 Te1,3.78,0.75,483.73,14
714,TePb3,0.0,Te1 Pb3,4.890000000000001,0.25,749.1999999999999,16
715,GeTe,0.6197999999999997,Ge1 Te1,0.0900000000000003,0.5,200.24,14
716,TePb3,0.0,Te1 Pb3,4.890000000000001,0.25,749.1999999999999,16
717,SnTe3,0.0,Sn1 Te3,4.340000000000001,0.25,501.50999999999993,14
718,TePb,1.4257,Te1 Pb1,0.22999999999999998,0.5,334.79999999999995,16
719,SnTe,0.6623999999999999,Sn1 Te1,0.14000000000000012,0.5,246.31,14
720,Ge3Te,0.0,Ge3 Te1,3.9299999999999993,0.75,345.52,14
721,Sn3Te,0.0,Sn3 Te1,3.78,0.75,483.73,14
722,GeTe,0.2008000000000001,Ge1 Te1,0.0900000000000003,0.5,200.24,14
723,TePb,0.7254000000000005,Te1 Pb1,0.22999999999999998,0.5,334.79999999999995,16
724,GeTe,0.8215000000000003,Ge1 Te1,0.0900000000000003,0.5,200.24,14
725,SnTe,0.0,Sn1 Te1,0.14000000000000012,0.5,246.31,14
726,GeTe,0.9104999999999999,Ge1 Te1,0.0900000000000003,0.5,200.24,14
727,GeTe,0.0,Ge1 Te1,0.0900000000000003,0.5,200.24,14
728,SnTe,0.18179999999999996,Sn1 Te1,0.14000000000000012,0.5,246.31,14