,pretty_formula,band_gap,comp,eneg_diff,atom_frac,molec_weight,group_num
354,ZnS,2.0385,Zn1 S1,0.9300000000000002,0.5,97.474,12
355,ZnS,2.0147,Zn1 S1,0.9300000000000002,0.5,97.474,12
356,SrS,1.8860000000000001,Sr1 S1,1.6300000000000001,0.5,119.685,2
357,ZnS,0.6826000000000001,Zn1 S1,0.9300000000000002,0.5,97.474,12
358,ZnS,1.2791,Zn1 S1,0.9300000000000002,0.5,97.474,12
359,ZnS,2.0349000000000004,Zn1 S1,0.9300000000000002,0.5,97.474,12
360,ZnS,2.3504000000000005,Zn1 S1,0.9300000000000002,0.5,97.474,12
361,ZnS,1.0574000000000001,Zn1 S1,0.9300000000000002,0.5,97.474,12
362,ZnS,1.9782000000000002,Zn1 S1,0.9300000000000002,0.5,97.474,12
363,ZnS2,2.0035,Zn1 S2,3.5100000000000002,0.3333333333333333,129.539,12
364,ZnS,0.9256,Zn1 S1,0.9300000000000002,0.5,97.474,12
365,ZnS,2.0157,Zn1 S1,0.9300000000000002,0.5,97.474,12
366,ZnS,2.0265,Zn1 S1,0.9300000000000002,0.5,97.474,12
367,ZnS,0.6392,Zn1 S1,0.9300000000000002,0.5,97.474,12
368,ZnS,1.9651,Zn1 S1,0.9300000000000002,0.5,97.474,12
369,ZnS,2.029,Zn1 S1,0.9300000000000002,0.5,97.474,12
370,ZnS,2.0244,Zn1 S1,0.9300000000000002,0.5,97.474,12
371,ZnS,1.0438,Zn1 S1,0.9300000000000002,0.5,97.474,12
372,MgS,3.3884,Mg1 S1,1.27,0.5,56.37,2
373,ZnS,2.0318000000000005,Zn1 S1,0.9300000000000002,0.5,97.474,12
374,ZnS,2.0322999999999998,Zn1 S1,0.9300000000000002,0.5,97.474,12
375,ZnS,2.021,Zn1 S1,0.9300000000000002,0.5,97.474,12
376,ZnS,2.0265,Zn1 S1,0.9300000000000002,0.5,97.474,12
377,CdS,0.27890000000000015,Cd1 S1,0.8900000000000001,0.5,144.476,12
378,ZnS,2.0281000000000002,Zn1 S1,0.9300000000000002,0.5,97.474,12
379,ZnS,0.1129,Zn1 S1,0.9300000000000002,0.5,97.474,12
380,ZnS,1.4278,Zn1 S1,0.9300000000000002,0.5,97.474,12
381,ZnS,1.2996,Zn1 S1,0.9300000000000002,0.5,97.474,12
382,ZnS,2.0264999999999995,Zn1 S1,0.9300000000000002,0.5,97.474,12
383,ZnS,1.5972999999999997,Zn1 S1,0.9300000000000002,0.5,97.474,12
384,ZnS,2.035,Zn1 S1,0.9300000000000002,0.5,97.474,12
385,ZnS,2.0087,Zn1 S1,0.9300000000000002,0.5,97.474,12
386,ZnS,2.0073,Zn1 S1,0.9300000000000002,0.5,97.474,12
387,SrS3,1.2876000000000003,Sr1 S3,6.79,0.25,183.815,2
388,ZnS,0.9117999999999999,Zn1 S1,0.9300000000000002,0.5,97.474,12
389,ZnS,1.4226,Zn1 S1,0.9300000000000002,0.5,97.474,12
390,ZnS,2.0167,Zn1 S1,0.9300000000000002,0.5,97.474,12
391,ZnS,1.9999000000000002,Zn1 S1,0.9300000000000002,0.5,97.474,12
392,ZnS,1.2736999999999998,Zn1 S1,0.9300000000000002,0.5,97.474,12
393,ZnS,2.0197000000000003,Zn1 S1,0.9300000000000002,0.5,97.474,12
394,ZnS,0.8346,Zn1 S1,0.9300000000000002,0.5,97.474,12
395,ZnS,2.0152,Zn1 S1,0.9300000000000002,0.5,97.474,12
396,ZnS,1.9752000000000003,Zn1 S1,0.9300000000000002,0.5,97.474,12
397,ZnS,0.8635000000000002,Zn1 S1,0.9300000000000002,0.5,97.474,12
398,ZnS,1.9860000000000002,Zn1 S1,0.9300000000000002,0.5,97.474,12
399,ZnS,0.9544999999999999,Zn1 S1,0.9300000000000002,0.5,97.474,12
400,ZnS,1.1705999999999999,Zn1 S1,0.9300000000000002,0.5,97.474,12
401,ZnS,1.9857,Zn1 S1,0.9300000000000002,0.5,97.474,12
402,ZnS,0.8233999999999999,Zn1 S1,0.9300000000000002,0.5,97.474,12
403,ZnS,2.0206999999999997,Zn1 S1,0.9300000000000002,0.5,97.474,12
404,ZnS,2.0324,Zn1 S1,0.9300000000000002,0.5,97.474,12
405,ZnS,2.0109000000000004,Zn1 S1,0.9300000000000002,0.5,97.474,12
406,ZnS,1.2026,Zn1 S1,0.9300000000000002,0.5,97.474,12
407,ZnS,2.0369,Zn1 S1,0.9300000000000002,0.5,97.474,12
408,ZnS,2.0381,Zn1 S1,0.9300000000000002,0.5,97.474,12
409,SrS,2.5618999999999996,Sr1 S1,1.6300000000000001,0.5,119.685,2
410,ZnS,0.585,Zn1 S1,0.9300000000000002,0.5,97.474,12
411,ZnS,1.9339,Zn1 S1,0.9300000000000002,0.5,97.474,12
412,Ba2S3,1.6239000000000003,Ba2 S3,5.96,0.4,370.849,2
413,ZnS,2.0038,Zn1 S1,0.9300000000000002,0.5,97.474,12
414,ZnS,2.0271,Zn1 S1,0.9300000000000002,0.5,97.474,12
415,ZnS,1.9944000000000002,Zn1 S1,0.9300000000000002,0.5,97.474,12
416,ZnS,1.4409999999999998,Zn1 S1,0.9300000000000002,0.5,97.474,12
417,ZnS,2.0201000000000002,Zn1 S1,0.9300000000000002,0.5,97.474,12
418,ZnS,1.9316999999999998,Zn1 S1,0.9300000000000002,0.5,97.474,12
419,MgS,3.5792,Mg1 S1,1.27,0.5,56.37,2
420,ZnS,1.8885,Zn1 S1,0.9300000000000002,0.5,97.474,12
421,ZnS,1.9888000000000001,Zn1 S1,0.9300000000000002,0.5,97.474,12
422,ZnS,1.3621,Zn1 S1,0.9300000000000002,0.5,97.474,12
423,ZnS,2.0067000000000004,Zn1 S1,0.9300000000000002,0.5,97.474,12
424,ZnS,0.8819999999999999,Zn1 S1,0.9300000000000002,0.5,97.474,12
425,ZnS,0.0,Zn1 S1,0.9300000000000002,0.5,97.474,12
426,ZnS,2.0639000000000003,Zn1 S1,0.9300000000000002,0.5,97.474,12
427,ZnS,2.0251,Zn1 S1,0.9300000000000002,0.5,97.474,12
428,ZnS,2.0301,Zn1 S1,0.9300000000000002,0.5,97.474,12
429,ZnS,1.1441999999999999,Zn1 S1,0.9300000000000002,0.5,97.474,12
430,CdS,1.5194999999999999,Cd1 S1,0.8900000000000001,0.5,144.476,12
431,ZnS,1.9788999999999999,Zn1 S1,0.9300000000000002,0.5,97.474,12
432,ZnS,2.1299,Zn1 S1,0.9300000000000002,0.5,97.474,12
433,ZnS,0.0,Zn1 S1,0.9300000000000002,0.5,97.474,12
434,ZnS,0.8320999999999998,Zn1 S1,0.9300000000000002,0.5,97.474,12
435,ZnS,2.0199999999999996,Zn1 S1,0.9300000000000002,0.5,97.474,12
436,ZnS,1.2387,Zn1 S1,0.9300000000000002,0.5,97.474,12
437,CdS,0.3682999999999996,Cd1 S1,0.8900000000000001,0.5,144.476,12
438,ZnS,1.9819,Zn1 S1,0.9300000000000002,0.5,97.474,12
439,BaS2,1.6077,Ba1 S2,4.2700000000000005,0.3333333333333333,201.457,2
440,ZnS,2.0047,Zn1 S1,0.9300000000000002,0.5,97.474,12
441,ZnS,1.9773,Zn1 S1,0.9300000000000002,0.5,97.474,12
442,ZnS,0.8792,Zn1 S1,0.9300000000000002,0.5,97.474,12
443,BaS3,1.1839000000000004,Ba1 S3,6.8500000000000005,0.25,233.522,2
444,ZnS,1.2532999999999999,Zn1 S1,0.9300000000000002,0.5,97.474,12
445,ZnS,1.2177,Zn1 S1,0.9300000000000002,0.5,97.474,12
446,ZnS,2.0181000000000004,Zn1 S1,0.9300000000000002,0.5,97.474,12
447,ZnS,1.9988000000000001,Zn1 S1,0.9300000000000002,0.5,97.474,12
448,ZnS,2.0243,Zn1 S1,0.9300000000000002,0.5,97.474,12
449,ZnS,1.1832,Zn1 S1,0.9300000000000002,0.5,97.474,12
450,ZnS,0.9214,Zn1 S1,0.9300000000000002,0.5,97.474,12
451,BeS,3.2356,Be1 S1,1.01,0.5,41.07718199999999,2
452,ZnS,2.0421000000000005,Zn1 S1,0.9300000000000002,0.5,97.474,12
453,ZnS,2.0653,Zn1 S1,0.9300000000000002,0.5,97.474,12
454,ZnS,2.0164999999999997,Zn1 S1,0.9300000000000002,0.5,97.474,12
455,ZnS,2.0379,Zn1 S1,0.9300000000000002,0.5,97.474,12
456,ZnS,1.2132999999999998,Zn1 S1,0.9300000000000002,0.5,97.474,12
457,ZnS,1.2473,Zn1 S1,0.9300000000000002,0.5,97.474,12
458,ZnS,2.0175,Zn1 S1,0.9300000000000002,0.5,97.474,12
459,ZnS,0.8065000000000002,Zn1 S1,0.9300000000000002,0.5,97.474,12
460,ZnS,2.0316,Zn1 S1,0.9300000000000002,0.5,97.474,12
461,ZnS,2.0389,Zn1 S1,0.9300000000000002,0.5,97.474,12
462,ZnS,2.0194,Zn1 S1,0.9300000000000002,0.5,97.474,12
463,ZnS,2.0313999999999997,Zn1 S1,0.9300000000000002,0.5,97.474,12
464,ZnS,0.476,Zn1 S1,0.9300000000000002,0.5,97.474,12
465,ZnS,1.9071,Zn1 S1,0.9300000000000002,0.5,97.474,12
466,ZnS,1.4016,Zn1 S1,0.9300000000000002,0.5,97.474,12
467,ZnS,2.0244999999999997,Zn1 S1,0.9300000000000002,0.5,97.474,12
468,ZnS,0.9376000000000002,Zn1 S1,0.9300000000000002,0.5,97.474,12
469,ZnS,2.064,Zn1 S1,0.9300000000000002,0.5,97.474,12
470,ZnS,2.0471,Zn1 S1,0.9300000000000002,0.5,97.474,12
471,ZnS,2.0047,Zn1 S1,0.9300000000000002,0.5,97.474,12
472,ZnS,2.0776,Zn1 S1,0.9300000000000002,0.5,97.474,12
473,ZnS,1.9563,Zn1 S1,0.9300000000000002,0.5,97.474,12
474,ZnS,1.9845000000000002,Zn1 S1,0.9300000000000002,0.5,97.474,12
475,MgS,2.9642,Mg1 S1,1.27,0.5,56.37,2
476,ZnS,0.7931999999999999,Zn1 S1,0.9300000000000002,0.5,97.474,12
477,ZnS,1.9620000000000002,Zn1 S1,0.9300000000000002,0.5,97.474,12
478,ZnS,1.0069000000000001,Zn1 S1,0.9300000000000002,0.5,97.474,12
479,ZnS,2.072,Zn1 S1,0.9300000000000002,0.5,97.474,12
480,MgS3,0.0,Mg1 S3,6.43,0.25,120.5,2
481,ZnS,1.0437,Zn1 S1,0.9300000000000002,0.5,97.474,12
482,ZnS,1.9938999999999998,Zn1 S1,0.9300000000000002,0.5,97.474,12
483,ZnS,1.9866,Zn1 S1,0.9300000000000002,0.5,97.474,12
484,ZnS,1.9928000000000001,Zn1 S1,0.9300000000000002,0.5,97.474,12
485,ZnS,1.6894999999999998,Zn1 S1,0.9300000000000002,0.5,97.474,12
486,ZnS,1.9813000000000003,Zn1 S1,0.9300000000000002,0.5,97.474,12
487,ZnS,2.0266,Zn1 S1,0.9300000000000002,0.5,97.474,12
488,ZnS,2.031,Zn1 S1,0.9300000000000002,0.5,97.474,12
489,ZnS,1.8580999999999999,Zn1 S1,0.9300000000000002,0.5,97.474,12
490,BaS3,1.6197,Ba1 S3,6.8500000000000005,0.25,233.522,2
491,ZnS,1.9952,Zn1 S1,0.9300000000000002,0.5,97.474,12
492,CdSe,0.5095,Cd1 Se1,0.8599999999999999,0.5,191.37099999999998,12
493,BaSe3,0.9443999999999999,Ba1 Se3,6.76,0.25,374.207,2
494,BaSe,2.2121000000000004,Ba1 Se1,1.6599999999999997,0.5,216.28699999999998,2
495,CaSe,2.1362,Ca1 Se1,1.5499999999999998,0.5,119.038,2
496,BaSe2,1.1722,Ba1 Se2,4.21,0.3333333333333333,295.24699999999996,2
497,CdSe2,0.9519000000000002,Cd1 Se2,3.4099999999999997,0.3333333333333333,270.331,12
498,BeSe,0.6330999999999998,Be1 Se1,0.9799999999999998,0.5,87.97218199999999,2
499,ZnSe,1.6143,Zn1 Se1,0.8999999999999999,0.5,144.369,12
500,MgSe,2.5473000000000003,Mg1 Se1,1.2399999999999998,0.5,103.26499999999999,2
501,CaSe,3.1573,Ca1 Se1,1.5499999999999998,0.5,119.038,2
502,CdSe,0.0,Cd1 Se1,0.8599999999999999,0.5,191.37099999999998,12
503,Cd3Se,0.0,Cd3 Se1,2.5200000000000005,0.75,416.193,12
504,Mg5Se,0.0,Mg5 Se1,4.000000000000001,0.8333333333333334,200.485,2
505,Ba3Se,0.0,Ba3 Se1,0.1200000000000001,0.75,490.941,2
506,BeSe,0.07469999999999999,Be1 Se1,0.9799999999999998,0.5,87.97218199999999,2
507,MgSe,1.9791999999999996,Mg1 Se1,1.2399999999999998,0.5,103.26499999999999,2
508,MgSe2,1.9935,Mg1 Se2,3.7899999999999996,0.3333333333333333,182.225,2
509,SrSe,2.2914000000000003,Sr1 Se1,1.5999999999999999,0.5,166.57999999999998,2
510,ZnSe,1.2003000000000001,Zn1 Se1,0.8999999999999999,0.5,144.369,12
511,Zn3Se,0.0,Zn3 Se1,2.3999999999999995,0.75,275.187,12
512,MgSe,2.5791,Mg1 Se1,1.2399999999999998,0.5,103.26499999999999,2
513,ZnSe,1.9672,Zn1 Se1,0.8999999999999999,0.5,144.369,12
514,BaSe,1.2143000000000002,Ba1 Se1,1.6599999999999997,0.5,216.28699999999998,2
515,Mg149Se,0.17110000000000003,Mg149 Se1,192.64,0.9933333333333333,3700.405,2
516,CdSe,0.5589,Cd1 Se1,0.8599999999999999,0.5,191.37099999999998,12
517,Zn3Se,0.0,Zn3 Se1,2.3999999999999995,0.75,275.187,12
518,BeSe,2.8976,Be1 Se1,0.9799999999999998,0.5,87.97218199999999,2
519,ZnSe2,1.1764000000000001,Zn1 Se2,3.4499999999999997,0.3333333333333333,223.329,12
520,ZnTe,0.28779999999999983,Zn1 Te1,0.4500000000000002,0.5,193.00900000000001,12
521,BaTe2,0.3984999999999994,Ba1 Te2,3.31,0.3333333333333333,392.527,2
522,CdTe,1.2285,Cd1 Te1,0.41000000000000014,0.5,240.011,12
523,ZnTe,1.1002999999999998,Zn1 Te1,0.4500000000000002,0.5,193.00900000000001,12
524,SrTe,2.0435000000000003,Sr1 Te1,1.1500000000000001,0.5,215.22,2
525,BaTe,1.8555,Ba1 Te1,1.21,0.5,264.927,2
526,Cd3Te,0.0,Cd3 Te1,2.97,0.75,464.83299999999997,12
527,CaTe,0.0,Ca1 Te1,1.1,0.5,167.678,2
528,CdTe,0.6224000000000003,Cd1 Te1,0.41000000000000014,0.5,240.011,12
529,CdTe,0.021500000000000075,Cd1 Te1,0.41000000000000014,0.5,240.011,12
530,MgTe,0.6288999999999998,Mg1 Te1,0.79,0.5,151.905,2
531,Mg5Te,0.0,Mg5 Te1,4.450000000000001,0.8333333333333334,249.125,2
532,ZnTe,0.29380000000000006,Zn1 Te1,0.4500000000000002,0.5,193.00900000000001,12
533,Mg149Te,0.15290000000000026,Mg149 Te1,193.09,0.9933333333333333,3749.045,2
534,MgTe,2.3181000000000003,Mg1 Te1,0.79,0.5,151.905,2
535,CdTe,0.0,Cd1 Te1,0.41000000000000014,0.5,240.011,12
536,ZnTe,1.0782000000000003,Zn1 Te1,0.4500000000000002,0.5,193.00900000000001,12
537,ZnTe,0.0,Zn1 Te1,0.4500000000000002,0.5,193.00900000000001,12
538,ZnTe,0.0,Zn1 Te1,0.4500000000000002,0.5,193.00900000000001,12
539,ZnTe,1.0679000000000003,Zn1 Te1,0.4500000000000002,0.5,193.00900000000001,12
540,MgTe,0.8468999999999998,Mg1 Te1,0.79,0.5,151.905,2
541,BaTe3,0.8414999999999999,Ba1 Te3,5.410000000000001,0.25,520.127,2
542,MgTe2,1.5091999999999999,Mg1 Te2,2.89,0.3333333333333333,279.505,2
543,CaTe,1.6040999999999999,Ca1 Te1,1.1,0.5,167.678,2
544,Mg3Te,0.0,Mg3 Te1,1.83,0.75,200.515,2
545,SrTe,0.5679999999999996,Sr1 Te1,1.1500000000000001,0.5,215.22,2
546,CdTe,0.0,Cd1 Te1,0.41000000000000014,0.5,240.011,12
547,CaTe,1.6323000000000003,Ca1 Te1,1.1,0.5,167.678,2
548,Ba3Te,0.0,Ba3 Te1,0.5699999999999998,0.75,539.581,2
549,BeTe,2.2113000000000005,Be1 Te1,0.53,0.5,136.612182,2
550,CdTe,0.0,Cd1 Te1,0.41000000000000014,0.5,240.011,12
551,CdTe,0.0,Cd1 Te1,0.41000000000000014,0.5,240.011,12
552,MgTe,2.3619999999999997,Mg1 Te1,0.79,0.5,151.905,2
553,CdTe,0.0,Cd1 Te1,0.41000000000000014,0.5,240.011,12
554,Ba3Te,0.0,Ba3 Te1,0.5699999999999998,0.75,539.581,2
555,CdTe,0.6185999999999998,Cd1 Te1,0.41000000000000014,0.5,240.011,12
556,BaTe,1.7263000000000002,Ba1 Te1,1.21,0.5,264.927,2
557,RbF3,1.0560999999999998,Rb1 F3,11.12,0.25,142.4630096,1
558,CsF,5.938,Cs1 F1,3.19,0.5,151.9038551,1
559,CsF,5.281,Cs1 F1,3.19,0.5,151.9038551,1
560,RbF,5.6523,Rb1 F1,3.16,0.5,104.4662032,1
561,KF2,1.4746999999999995,K1 F2,7.14,0.3333333333333333,77.09510639999999,1
562,KF3,0.11140000000000017,K1 F3,11.12,0.25,96.0935096,1
563,RbF2,1.4626000000000006,Rb1 F2,7.14,0.3333333333333333,123.4646064,1
564,RbF3,0.0,Rb1 F3,11.12,0.25,142.4630096,1
565,LiF,8.7195,Li1 F1,3.0,0.5,25.939403199999997,1
566,HF,6.7187,H1 F1,1.7799999999999998,0.5,20.0063432,1
567,KF,6.0694,K1 F1,3.16,0.5,58.0967032,1
568,NaF,6.0951,Na1 F1,3.05,0.5,41.98817248,1
569,H3F2,7.9086,H3 F2,1.3599999999999994,0.6,41.0206264,1
570,RbF,6.2488,Rb1 F1,3.16,0.5,104.4662032,1
571,KF,6.641,K1 F1,3.16,0.5,58.0967032,1
572,NaF3,0.0,Na1 F3,11.01,0.25,79.98497888,1
573,RbF3,2.153,Rb1 F3,11.12,0.25,142.4630096,1
574,RbF3,2.1149,Rb1 F3,11.12,0.25,142.4630096,1
575,RbF3,0.0,Rb1 F3,11.12,0.25,142.4630096,1
576,LiF,7.4777000000000005,Li1 F1,3.0,0.5,25.939403199999997,1
577,KF5,0.0,K1 F5,19.08,0.16666666666666666,134.090316,1
578,LiF,7.519500000000001,Li1 F1,3.0,0.5,25.939403199999997,1
579,LiF3,0.0,Li1 F3,10.959999999999999,0.25,63.9362096,1
580,NaCl3,0.0,Na1 Cl3,8.55,0.25,129.34876928,1
581,Na2Cl,0.0,Na2 Cl1,1.3,0.6666666666666666,81.43253856000001,1
582,Na2Cl,0.0,Na2 Cl1,1.3,0.6666666666666666,81.43253856000001,1
583,HCl,5.9709,H1 Cl1,0.96,0.5,36.46094,1
584,Na2Cl,0.0,Na2 Cl1,1.3,0.6666666666666666,81.43253856000001,1
585,Na3Cl2,0.0,Na3 Cl2,3.5300000000000002,0.6,139.87530784,1
586,NaCl,5.145099999999999,Na1 Cl1,2.23,0.5,58.44276928000001,1
587,NaCl3,2.7103,Na1 Cl3,8.55,0.25,129.34876928,1
588,HCl,5.1812000000000005,H1 Cl1,0.96,0.5,36.46094,1
589,RbCl,4.7979,Rb1 Cl1,2.3400000000000003,0.5,120.9208,1
590,RbCl,5.0161999999999995,Rb1 Cl1,2.3400000000000003,0.5,120.9208,1
591,HCl,2.9455,H1 Cl1,0.96,0.5,36.46094,1
592,LiCl,6.3951,Li1 Cl1,2.18,0.5,42.394000000000005,1
593,HCl,0.0,H1 Cl1,0.96,0.5,36.46094,1
594,NaCl,4.4543,Na1 Cl1,2.23,0.5,58.44276928000001,1
595,CsCl,5.0172,Cs1 Cl1,2.37,0.5,168.3584519,1
596,NaCl7,0.5193000000000001,Na1 Cl7,21.19,0.125,271.16076928,1
597,LiCl,5.9266,Li1 Cl1,2.18,0.5,42.394000000000005,1
598,Na3Cl,0.0,Na3 Cl1,0.3700000000000001,0.75,104.42230784,1
599,Na3Cl2,0.0,Na3 Cl2,3.5300000000000002,0.6,139.87530784,1
600,KCl3,0.0,K1 Cl3,8.66,0.25,145.4573,1
601,KCl,4.8217,K1 Cl1,2.3400000000000003,0.5,74.5513,1
602,CsCl,5.4829,Cs1 Cl1,2.37,0.5,168.3584519,1
603,KCl,5.0448,K1 Cl1,2.3400000000000003,0.5,74.5513,1
604,Na2Cl,0.0,Na2 Cl1,1.3,0.6666666666666666,81.43253856000001,1
605,LiBr,4.9350000000000005,Li1 Br1,1.98,0.5,86.845,1
606,LiBr,5.09,Li1 Br1,1.98,0.5,86.845,1
607,HBr,4.944599999999999,H1 Br1,0.7599999999999998,0.5,80.91194,1
608,HBr,4.9181,H1 Br1,0.7599999999999998,0.5,80.91194,1
609,HBr,1.4995,H1 Br1,0.7599999999999998,0.5,80.91194,1
610,NaBr,4.0895,Na1 Br1,2.03,0.5,102.89376928,1
611,RbBr3,0.0,Rb1 Br3,8.059999999999999,0.25,325.1798,1
612,KBr,3.9019,K1 Br1,2.14,0.5,119.00229999999999,1
613,KBr,4.5151,K1 Br1,2.14,0.5,119.00229999999999,1
614,CsBr,4.4247,Cs1 Br1,2.17,0.5,212.8094519,1
615,RbBr,4.3724,Rb1 Br1,2.14,0.5,165.3718,1
616,KBr3,0.0,K1 Br3,8.059999999999999,0.25,278.8103,1
617,RbBr,4.5276,Rb1 Br1,2.14,0.5,165.3718,1
618,HBr,0.0,H1 Br1,0.7599999999999998,0.5,80.91194,1
619,CsBr3,2.3245,Cs1 Br3,8.09,0.25,372.6174519,1
620,CsBr,4.7786,Cs1 Br1,2.17,0.5,212.8094519,1
621,RbI,3.9656,Rb1 I1,1.8400000000000003,0.5,212.37227000000001,1
622,CsI,4.2301,Cs1 I1,1.87,0.5,259.8099219,1
623,HI3,1.2837,H1 I3,5.78,0.25,381.72135000000003,1
624,KI,3.9111,K1 I1,1.8400000000000003,0.5,166.00277,1
625,CsI,3.8345000000000002,Cs1 I1,1.87,0.5,259.8099219,1
626,RbI3,1.9641000000000002,Rb1 I3,7.16,0.25,466.18121,1
627,CsI,3.8556,Cs1 I1,1.87,0.5,259.8099219,1
628,LiI,4.2402999999999995,Li1 I1,1.6800000000000002,0.5,133.84547,1
629,CsI3,2.0157000000000003,Cs1 I3,7.19,0.25,513.6188619,1
630,NaI,3.5692000000000004,Na1 I1,1.73,0.5,149.89423928,1
631,CsI4,1.7847,Cs1 I4,9.850000000000001,0.2,640.5233319,1
632,LiI,4.2404,Li1 I1,1.6800000000000002,0.5,133.84547,1
633,CsI,3.1243,Cs1 I1,1.87,0.5,259.8099219,1
634,KI,3.7452,K1 I1,1.8400000000000003,0.5,166.00277,1
635,HI,4.084899999999999,H1 I1,0.45999999999999996,0.5,127.91241000000001,1
636,Cs3I,0.0,Cs3 I1,0.29000000000000004,0.75,525.6208257000001,1
637,RbI,3.9541000000000004,Rb1 I1,1.8400000000000003,0.5,212.37227000000001,1
638,LiI,4.381,Li1 I1,1.6800000000000002,0.5,133.84547,1
639,KI,4.0433,K1 I1,1.8400000000000003,0.5,166.00277,1
640,NaI,3.08,Na1 I1,1.73,0.5,149.89423928,1
641,PbS,2.0794,Pb1 S1,0.25,0.5,239.265,14
642,Sn3S,0.0,Sn3 S1,3.3,0.75,388.195,14
643,GeS,0.7596000000000007,Ge1 S1,0.5700000000000003,0.5,104.705,14
644,SnS,0.9549000000000003,Sn1 S1,0.6200000000000001,0.5,150.77499999999998,14
645,SnS,1.2008,Sn1 S1,0.6200000000000001,0.5,150.77499999999998,14
646,PbS2,0.8069999999999995,Pb1 S2,2.83,0.3333333333333333,271.33,14
647,Sn3S7,0.0,Sn3 S7,12.180000000000003,0.3,580.585,14
648,PbS,1.2407999999999997,Pb1 S1,0.25,0.5,239.265,14
649,PbS,1.2720000000000002,Pb1 S1,0.25,0.5,239.265,14
650,PbS,1.2330999999999999,Pb1 S1,0.25,0.5,239.265,14
651,SnS,0.7974999999999994,Sn1 S1,0.6200000000000001,0.5,150.77499999999998,14
652,PbS,0.7624999999999997,Pb1 S1,0.25,0.5,239.265,14
653,PbS,2.2577,Pb1 S1,0.25,0.5,239.265,14
654,GeS2,2.2648,Ge1 S2,3.1500000000000004,0.3333333333333333,136.76999999999998,14
655,GeS2,2.1396,Ge1 S2,3.1500000000000004,0.3333333333333333,136.76999999999998,14
656,SnS2,1.4909999999999997,Sn1 S2,3.2,0.3333333333333333,182.83999999999997,14
657,PbS2,0.4464999999999999,Pb1 S2,2.83,0.3333333333333333,271.33,14
658,PbS,1.5580999999999996,Pb1 S1,0.25,0.5,239.265,14
659,PbS,0.7835000000000001,Pb1 S1,0.25,0.5,239.265,14
660,PbS,2.0879,Pb1 S1,0.25,0.5,239.265,14
661,SnS2,1.8791000000000002,Sn1 S2,3.2,0.3333333333333333,182.83999999999997,14
662,SnS2,1.3437000000000006,Sn1 S2,3.2,0.3333333333333333,182.83999999999997,14
663,Sn2S3,0.8572000000000006,Sn2 S3,3.8200000000000003,0.4,333.615,14
664,SnS,0.23709999999999987,Sn1 S1,0.6200000000000001,0.5,150.77499999999998,14
665,PbS,1.0371999999999995,Pb1 S1,0.25,0.5,239.265,14
666,Sn3S7,0.0,Sn3 S7,12.180000000000003,0.3,580.585,14
667,GeS2,2.2569,Ge1 S2,3.1500000000000004,0.3333333333333333,136.76999999999998,14
668,PbS,0.9925999999999995,Pb1 S1,0.25,0.5,239.265,14
669,PbS,0.7417999999999996,Pb1 S1,0.25,0.5,239.265,14
670,GeS,1.237,Ge1 S1,0.5700000000000003,0.5,104.705,14
671,SnS,1.1111000000000004,Sn1 S1,0.6200000000000001,0.5,150.77499999999998,14
672,SnS,1.4941,Sn1 S1,0.6200000000000001,0.5,150.77499999999998,14
673,SnS,1.6279000000000001,Sn1 S1,0.6200000000000001,0.5,150.77499999999998,14
674,SnS2,1.5615,Sn1 S2,3.2,0.3333333333333333,182.83999999999997,14
675,PbS,2.0532,Pb1 S1,0.25,0.5,239.265,14
676,Pb3S,0.0,Pb3 S1,4.41,0.75,653.665,14
677,SnS,1.5319,Sn1 S1,0.6200000000000001,0.5,150.77499999999998,14
678,PbS,2.2622,Pb1 S1,0.25,0.5,239.265,14
679,PbS,0.03249999999999975,Pb1 S1,0.25,0.5,239.265,14
680,PbS,0.7440999999999995,Pb1 S1,0.25,0.5,239.265,14
681,GeS2,1.604,Ge1 S2,3.1500000000000004,0.3333333333333333,136.76999999999998,14
682,GeS2,2.2271,Ge1 S2,3.1500000000000004,0.3333333333333333,136.76999999999998,14
683,GeS2,2.5989999999999998,Ge1 S2,3.1500000000000004,0.3333333333333333,136.76999999999998,14
684,PbS,0.0,Pb1 S1,0.25,0.5,239.265,14
685,PbS,0.0,Pb1 S1,0.25,0.5,239.265,14